
 Distributed Data Interface kickoff program.
 Initiating 1 compute processes on 1 nodes to run the following command:
 /usr/local/gamess/gamess.00.x /home/webmo/users/yamnor/1363/input 

          *******************************************************
          *                                                     *
          *      GAMESS VERSION = 30 SEP 2021 (R2 Patch 2)      *
          *                                                     *
          *              doi.org/10.1063/5.0005188              *
          *                                                     *
          **************** 64 BIT LINUX VERSION *****************

  GAMESS HAS BEEN MADE POSSIBLE WITH IMPORTANT CONTRIBUTIONS FROM
  THE FOLLOWING INDIVIDUALS (IN ALPHABETICAL ORDER):

     IVANA ADAMOVIC, CHRISTINE AIKENS, TOMOKO AKAMA,
     MELISA ALKAN, YURI ALEXEEV, YURIKO AOKI, POOJA ARORA,
     TOSHIO ASADA, ANDREY ASADCHEV, KIM K. BALDRIDGE,
     PRADIPTA BANDYOPADHYAY, TAYLOR A. BARNES, MARIA BARYSZ,
     ROB BELL, JONATHAN BENTZ, COLLEEN BERTONI,
     JERRY A. BOATZ, BRETT BODE, KURT BRORSEN, KURT R. BRORSEN,
     LAIMUTIS BYTAUTAS, CALEB CARLIN, LAURA CARRINGTON,
     GALINA CHABAN, BENOIT CHAMPAGNE, WEI CHEN, MAHITO CHIBA,
     DAN CHIPMAN, CHEOL HO CHOI, TANNER CULPITT,
     DIPAYAN DATTA, PAUL DAY, ALBERT DEFUSCO,
     NUWAN DESILVA, J. EMILIANO DEUSTUA,
     TIM DUDLEY, MICHEL DUPUIS, STEVEN T. ELBERT,
     DMITRI FEDOROV, ALEX FINDLATER, GRAHAM FLETCHER,
     MARK FREITAG, CHRISTIAN FRIEDL, DAVID GARMER,
     IGOR S. GERASIMOV, KURT GLAESEMANN, MARK S. GORDON,
     JEFFREY GOUR, FENG LONG GU, EMILIE B. GUIDEZ,
     ANASTASIA GUNINA, SHARON HAMMES-SCHIFFER, MASATAKE HARUTA,
     KIMIHIKO HIRAO, YASUHIRO IKABATA, TZVETELIN IORDANOV,
     STEPHAN IRLE, KAZUYA ISHIMURA, JOE IVANIC, FRANK JENSEN,
     JAN H. JENSEN, VISVALDAS KAIRYS, MUNEAKI KAMIYA,
     MICHIO KATOUDA, NAOAKI KAWAKAMI, DAN KEMP, BERNARD KIRTMAN,
     KAZUO KITAURA, MARIUSZ KLOBUKOWSKI, MASATO KOBAYASHI,
     PRAKASHAN KORAMBATH, JACEK KORCHOWIEC, SHIRO KOSEKI,
     KAROL KOWALSKI, JIMMY KROMANN, STANISLAW KUCHARSKI,
     HENRY KURTZ, SAROM SOK LEANG, HUI LI, SHUHUA LI, WEI LI,
     JESSE LUTZ, ALEKSANDR O. LYKHIN, MARCIN MAKOWSKI,
     JOANI MATO, NIKITA MATSUNAGA, BENEDETTA MENNUCCI,
     GRANT MERRILL, NORIYUKI MINEZAWA, VLADIMIR MIRONOV,
     EISAKU MIYOSHI, JOHN A. MONTGOMERY JR., HIROTOSHI MORI,
     JONATHAN MULLIN, MONIKA MUSIAL, SHIGERU NAGASE,
     TAKESHI NAGATA, HIROMI NAKAI, TAKAHITO NAKAJIMA,
     YUYA NAKAJIMA, HARUYUKI NAKANO, HIROYA NAKATA, SEAN NEDD,
     HEATHER NETZLOFF, KIET A. NGUYEN, YOSHIO NISHIMOTO,
     BOSILJKA NJEGIC, RYAN OLSON, MIKE PAK, ROBERTO PEVERATI,
     BUU PHAM, PIOTR PIECUCH, ANNA POMOGAEVA, DAVID POOLE,
     SPENCER PRUITT, OLIVIER QUINET, LUKE ROSKOP,
     KLAUS RUEDENBERG, ANDREW SAND, TOSAPORN SATTASATHUCHANA,
     NOZOMI SAWADA, MICHAEL W. SCHMIDT, PATRICK E. SCHNEIDER,
     JUNJI SEINO, PRACHI SHARMA, JUN SHEN, JIM SHOEMAKER,
     YINAN SHU, DEJUN SI, JONATHAN SKONE, LYUDMILA SLIPCHENKO,
     TONY SMITH, JIE SONG, MARK SPACKMAN, CASPER STEINMANN,
     WALT STEVENS, PEIFENG SU, SHUJUN SU, CHET SWALINA,
     TETSUYA TAKETSUGU, ZHEN TAO, NANDUN THELLAMUREGE
     SEIKEN TOKURA, JACOPO TOMASI, TSUGUKI TOUMA, TAKAO TSUNEDA,
     HIROAKI UMEDA, JORGE LUIS GALVEZ VALLEJO, YALI WANG,
     SIMON WEBB, AARON WEST, THERESA L. WINDUS, MARTA WLOCH,
     PENG XU, KIYOSHI YAGI, SUSUMU YANAGISAWA, YANG YANG,
     SOOHAENG YOO, TAKESHI YOSHIKAWA, FEDERICO ZAHARIEV,
     TOBY ZENG

  WHO ARE SUPPORTED BY THEIR INSTITUTION/UNIVERSITY/COMPANY/GROUP
  (IN ALPHABETICAL ORDER):

     EP ANALYTICS, FACULTES UNIVERSITAIRES NOTRE-DAME DE LA PAIX,
     INSTITUTE FOR MOLECULAR SCIENCE, IOWA STATE UNIVERSITY,
     JACKSON STATE UNIVERSITY, JOHANNES KEPLER UNIVERSITY LINZ,
     KYUSHU UNIVERSITY, MICHIGAN STATE UNIVERSITY,
     MIE UNIVERSITY, THE MOLECULAR SCIENCES SOFTWARE INSTITUTE,
     MOSCOW STATE UNIVERSITY,
     N. COPERNICUS UNIVERSITY, NAGOYA UNIVERSITY,
     NANJING UNIVERSITY, NAT. INST. OF ADVANCED INDUSTRIAL
     SCIENCE AND TECHNOLOGY, NATIONAL INST. OF STANDARDS AND
     TECHNOLOGY, NESMEYANOV INSTITUTE OF ORGANOELEMENT COMPOUNDS
     OF RUSSIAN ACADEMY OF SCIENCES, OSAKA PREFECTURE UNIVERSITY,
     PENNSYLVANIA STATE UNIVERSITY, TOKYO INSTITUTE OF TECHNOLOGY,
     UNIVERSITY OF AARHUS, UNIVERSITY OF ALBERTA,
     UNIVERSITY OF CALIFORNIA AT SANTA BARBARA,
     UNIVERSITY OF COPENHAGEN, UNIVERSITY OF IOWA,
     UNIVERSITY OF MEMPHIS, UNIVERSITY OF MINNESOTA,
     UNIVERSITY OF NEBRASKA, UNIVERSITY OF NEW ENGLAND,
     UNIVERSITY OF NOTRE DAME, UNIVERSITY OF PISA,
     UNIVERSITY OF SILESIA, UNIVERSITY OF TOKYO,
     UNIVERSITY OF ZURICH, WASEDA UNIVERSITY, YALE UNIVERSITY

  GAMESS SOFTWARE MANAGEMENT TEAM FOR THIS RELEASE:
     MARK S. GORDON (TEAM LEAD),
     BRETT BODE (SENIOR ADVISOR),
     GIUSEPPE BARCA,
     COLLEEN BERTONI,
     KRISTOPHER KEIPERT (ADVISOR),
     SAROM S. LEANG (DEVELOPMENT LEAD),
     BUU PHAM,
     JORGE LUIS GALVEZ VALLEJO (WEBSITE ADMINISTRATOR),
     PENG XU

 EXECUTION OF GAMESS BEGUN 18:00:17 09-JAN-2024    

            ECHO OF THE FIRST FEW INPUT CARDS -
 INPUT CARD> $CONTRL SCFTYP=RHF RUNTYP=HESSIAN                                              
 INPUT CARD>       ICHARG=0 MULT=1 COORD=ZMTMPC $END                                        
 INPUT CARD> $SYSTEM MWORDS=128 $END                                                        
 INPUT CARD> $BASIS GBASIS=N31 NGAUSS=6 NDFUNC=1 $END                                       
 INPUT CARD> $DATA                                                                          
 INPUT CARD>CH4                                                                             
 INPUT CARD>C1 1                                                                            
 INPUT CARD>C 0.0000000 0 0.0000000 0 0.0000000 0 0 0 0                                     
 INPUT CARD>H 1.0836340 1 0.0000000 0 0.0000000 0 1 0 0                                     
 INPUT CARD>H 1.0836335 1 109.48411 1 0.0000000 0 1 2 0                                     
 INPUT CARD>H 1.0836340 1 109.46471 1 119.99627 1 1 2 3                                     
 INPUT CARD>H 1.0836340 1 109.46470 1 -119.99627 1 1 2 3                                    
 INPUT CARD> $END                                                                           
 INPUT CARD>                                                                                
 INPUT CARD>                                                                                
  128000000 WORDS OF MEMORY AVAILABLE

     BASIS OPTIONS
     -------------
     GBASIS=N31          IGAUSS=       6      POLAR=POPN31  
     NDFUNC=       1     NFFUNC=       0     DIFFSP=       F
     NPFUNC=       0      DIFFS=       F     BASNAM=        


     RUN TITLE
     ---------
 CH4                                                                             

 THE POINT GROUP OF THE MOLECULE IS C1      
 THE ORDER OF THE PRINCIPAL AXIS IS     1

 YOUR FULLY SUBSTITUTED Z-MATRIX IS
 C   
 H      1   1.0836340
 H      1   1.0836335  2  109.4841
 H      1   1.0836340  2  109.4647  3  119.9963  0
 H      1   1.0836340  2  109.4647  3 -119.9963  0

 THE MOMENTS OF INERTIA ARE (AMU-ANGSTROM**2)
 IXX=     3.156   IYY=     3.156   IZZ=     3.156

 ATOM      ATOMIC                      COORDINATES (BOHR)
           CHARGE         X                   Y                   Z
 C           6.0    -0.0000007876       -0.0000000240        0.0000005496
 H           1.0     1.6659718204        0.0505964136        1.1896823112
 H           1.0    -1.6767107391       -0.0510347783        1.1744803266
 H           1.0    -0.0454424077        1.6715752731       -1.1820055880
 H           1.0     0.0561907077       -1.6711367261       -1.1821635941

          INTERNUCLEAR DISTANCES (ANGS.)
          ------------------------------

                1 C          2 H          3 H          4 H          5 H     

   1 C       0.0000000    1.0836340 *  1.0836335 *  1.0836340 *  1.0836340 *
   2 H       1.0836340 *  0.0000000    1.7697072 *  1.7694958 *  1.7694957 *
   3 H       1.0836335 *  1.7697072 *  0.0000000    1.7694984 *  1.7694985 *
   4 H       1.0836340 *  1.7694958 *  1.7694984 *  0.0000000    1.7697046 *
   5 H       1.0836340 *  1.7694957 *  1.7694985 *  1.7697046 *  0.0000000  

  * ... LESS THAN  3.000


     ATOMIC BASIS SET
     ----------------
 THE CONTRACTED PRIMITIVE FUNCTIONS HAVE BEEN UNNORMALIZED
 THE CONTRACTED BASIS FUNCTIONS ARE NOW NORMALIZED TO UNITY

  SHELL TYPE  PRIMITIVE        EXPONENT          CONTRACTION COEFFICIENT(S)

 C         

      1   S       1          3047.5248800    0.001834737132
      1   S       2           457.3695180    0.014037322813
      1   S       3           103.9486850    0.068842622264
      1   S       4            29.2101553    0.232184443216
      1   S       5             9.2866630    0.467941348435
      1   S       6             3.1639270    0.362311985337

      2   L       7             7.8682723   -0.119332419775    0.068999066591
      2   L       8             1.8812885   -0.160854151696    0.316423960957
      2   L       9             0.5442493    1.143456437840    0.744308290898

      3   L      10             0.1687145    1.000000000000    1.000000000000

      4   D      11             0.8000000    1.000000000000

 H         

      5   S      12            18.7311370    0.033494604338
      5   S      13             2.8253944    0.234726953484
      5   S      14             0.6401217    0.813757326146

      6   S      15             0.1612778    1.000000000000

 H         

      7   S      16            18.7311370    0.033494604338
      7   S      17             2.8253944    0.234726953484
      7   S      18             0.6401217    0.813757326146

      8   S      19             0.1612778    1.000000000000

 H         

      9   S      20            18.7311370    0.033494604338
      9   S      21             2.8253944    0.234726953484
      9   S      22             0.6401217    0.813757326146

     10   S      23             0.1612778    1.000000000000

 H         

     11   S      24            18.7311370    0.033494604338
     11   S      25             2.8253944    0.234726953484
     11   S      26             0.6401217    0.813757326146

     12   S      27             0.1612778    1.000000000000

 TOTAL NUMBER OF BASIS SET SHELLS             =   12
 NUMBER OF CARTESIAN GAUSSIAN BASIS FUNCTIONS =   23
 NUMBER OF ELECTRONS                          =   10
 CHARGE OF MOLECULE                           =    0
 SPIN MULTIPLICITY                            =    1
 NUMBER OF OCCUPIED ORBITALS (ALPHA)          =    5
 NUMBER OF OCCUPIED ORBITALS (BETA )          =    5
 TOTAL NUMBER OF ATOMS                        =    5
 THE NUCLEAR REPULSION ENERGY IS       13.5143203759

     $CONTRL OPTIONS
     ---------------
 SCFTYP=RHF          RUNTYP=HESSIAN      EXETYP=RUN     
 MPLEVL=       0     CITYP =NONE         CCTYP =NONE         VBTYP =NONE    
 DFTTYP=NONE         TDDFT =NONE    
 MULT  =       1     ICHARG=       0     NZVAR =       0     COORD =ZMTMPC  
 PP    =NONE         RELWFN=NONE         LOCAL =NONE         NUMGRD=       F
 ISPHER=      -1     NOSYM =       0     MAXIT =      30     UNITS =ANGS    
 PLTORB=       F     MOLPLT=       F     AIMPAC=       F     FRIEND=        
 NPRINT=       7     IREST =       0     GEOM  =INPUT   
 NORMF =       0     NORMP =       0     ITOL  =      20     ICUT  =       9
 INTTYP=BEST         GRDTYP=BEST         QMTTOL= 1.0E-06

     $SYSTEM OPTIONS
     ---------------
  REPLICATED MEMORY=   128000000 WORDS (ON EVERY NODE).
 DISTRIBUTED MEMDDI=           0 MILLION WORDS IN AGGREGATE,
 MEMDDI DISTRIBUTED OVER   1 PROCESSORS IS           0 WORDS/PROCESSOR.
 TOTAL MEMORY REQUESTED ON EACH PROCESSOR=   128000000 WORDS.
 TIMLIM=      525600.00 MINUTES, OR     365.0 DAYS.
 PARALL= F  BALTYP=  DLB     KDIAG=    0  COREFL= F
 MXSEQ2=     300 MXSEQ3=     150  mem10=         0  mem22=         0

          ----------------
          PROPERTIES INPUT
          ----------------

     MOMENTS            FIELD           POTENTIAL          DENSITY
 IEMOM =       1   IEFLD =       0   IEPOT =       0   IEDEN =       0
 WHERE =COMASS     WHERE =NUCLEI     WHERE =NUCLEI     WHERE =NUCLEI  
 OUTPUT=BOTH       OUTPUT=BOTH       OUTPUT=BOTH       OUTPUT=BOTH    
 IEMINT=       0   IEFINT=       0                     IEDINT=       0
                                                       MORB  =       0
          EXTRAPOLATION IN EFFECT
          SOSCF IN EFFECT
 ORBITAL PRINTING OPTION: NPREO=     1    23     2     1

     -------------------------------
     INTEGRAL TRANSFORMATION OPTIONS
     -------------------------------
     NWORD  =            0
     CUTOFF = 1.0E-09     MPTRAN =       0
     DIRTRF =       F     AOINTS =DUP     

          ----------------------
          INTEGRAL INPUT OPTIONS
          ----------------------
 NOPK  =       1 NORDER=       0 SCHWRZ=       F

     ------------------------------------------
     THE POINT GROUP IS C1 , NAXIS= 1, ORDER= 1
     ------------------------------------------

     DIMENSIONS OF THE SYMMETRY SUBSPACES ARE
 A   =   23

 ..... DONE SETTING UP THE RUN .....
 STEP CPU TIME =     0.01 TOTAL CPU TIME =          0.0 (      0.0 MIN)
 TOTAL WALL CLOCK TIME=          0.0 SECONDS, CPU UTILIZATION IS    38.19%

     ---------------------------------
     HESSIAN MATRIX CONTROL PARAMETERS
     ---------------------------------
     METHOD=ANALYTIC   NVIB  =       2   VIBSIZ= 0.01000
     RDHESS=       F   PURIFY=       F   PRTIFC=       F
     VIBANL=       T   DECOMP=       F   PROJCT=       F
     SCLFAC= 1.00000   PRTSCN=       F   NPRT  =       0
     PULCOR=       F   NPUN  =       0   REDOVB=       T
     HSSTYP=GENERAL 
     THERMOCHEMISTRY WILL BE PRINTED FOR    1 TEMPERATURES:
      298.15000
 Old integral subroutine is used

     ------------------------------
     CPHF RESPONSE SOLUTION OPTIONS
     ------------------------------
     POLAR  =       F     NWORD  =       0
     CPHF   =AO      

          ********************
          1 ELECTRON INTEGRALS
          ********************
 ...... END OF ONE-ELECTRON INTEGRALS ......
 STEP CPU TIME =     0.00 TOTAL CPU TIME =          0.0 (      0.0 MIN)
 TOTAL WALL CLOCK TIME=          0.1 SECONDS, CPU UTILIZATION IS     9.69%

          -------------
          GUESS OPTIONS
          -------------
          GUESS =HUCKEL            NORB  =       0          NORDER=       0
          MIX   =       F          PRTMO =       F          PUNMO =       F
          TOLZ  = 1.0E-08          TOLE  = 1.0E-05
          SYMDEN=       F          PURIFY=       F

 INITIAL GUESS ORBITALS GENERATED BY HUCKEL   ROUTINE.
 HUCKEL GUESS REQUIRES      7748 WORDS.

 SYMMETRIES FOR INITIAL GUESS ORBITALS FOLLOW.   BOTH SET(S).
     5 ORBITALS ARE OCCUPIED (    1 CORE ORBITALS).
     2=A        3=A        4=A        5=A        6=A        7=A        8=A   
     9=A       10=A       11=A       12=A       13=A       14=A       15=A   
 ...... END OF INITIAL ORBITAL SELECTION ......
 STEP CPU TIME =     0.00 TOTAL CPU TIME =          0.0 (      0.0 MIN)
 TOTAL WALL CLOCK TIME=          0.1 SECONDS, CPU UTILIZATION IS    10.85%

                    ----------------------
                    AO INTEGRAL TECHNOLOGY
                    ----------------------
     S,P,L SHELL ROTATED AXIS INTEGRALS, REPROGRAMMED BY
        KAZUYA ISHIMURA (IMS) AND JOSE SIERRA (SYNSTAR).
     S,P,D,L SHELL ROTATED AXIS INTEGRALS PROGRAMMED BY
        KAZUYA ISHIMURA (INSTITUTE FOR MOLECULAR SCIENCE).
     S,P,D,F,G SHELL TO TOTAL QUARTET ANGULAR MOMENTUM SUM 5,
        ERIC PROGRAM BY GRAHAM FLETCHER (ELORET AND NASA ADVANCED
        SUPERCOMPUTING DIVISION, AMES RESEARCH CENTER).
     S,P,D,F,G,L SHELL GENERAL RYS QUADRATURE PROGRAMMED BY
        MICHEL DUPUIS (PACIFIC NORTHWEST NATIONAL LABORATORY).

          --------------------
          2 ELECTRON INTEGRALS
          --------------------

 THE -PK- OPTION IS OFF, THE INTEGRALS ARE NOT IN SUPERMATRIX FORM.
 STORING   15000 INTEGRALS/RECORD ON DISK, USING 12 BYTES/INTEGRAL.
 TWO ELECTRON INTEGRAL EVALUATION REQUIRES   90474 WORDS OF MEMORY.
 II,JST,KST,LST =  1  1  1  1 NREC =         1 INTLOC =    1
 II,JST,KST,LST =  2  1  1  1 NREC =         1 INTLOC =    2
 II,JST,KST,LST =  3  1  1  1 NREC =         1 INTLOC =   34
 II,JST,KST,LST =  4  1  1  1 NREC =         1 INTLOC =  214
 II,JST,KST,LST =  5  1  1  1 NREC =         1 INTLOC = 1189
 II,JST,KST,LST =  6  1  1  1 NREC =         1 INTLOC = 3245
 II,JST,KST,LST =  7  1  1  1 NREC =         1 INTLOC = 5710
 II,JST,KST,LST =  8  1  1  1 NREC =         1 INTLOC = 8635
 II,JST,KST,LST =  9  1  1  1 NREC =         1 INTLOC =12067
 II,JST,KST,LST = 10  1  1  1 NREC =         2 INTLOC = 1077
 II,JST,KST,LST = 11  1  1  1 NREC =         2 INTLOC = 5718
 II,JST,KST,LST = 12  1  1  1 NREC =         2 INTLOC =11053
 TOTAL NUMBER OF NONZERO TWO-ELECTRON INTEGRALS =               32140
          3 INTEGRAL RECORDS WERE STORED ON DISK FILE  8.
  ...... END OF TWO-ELECTRON INTEGRALS .....
 STEP CPU TIME =     0.02 TOTAL CPU TIME =          0.0 (      0.0 MIN)
 TOTAL WALL CLOCK TIME=          0.3 SECONDS, CPU UTILIZATION IS    11.27%

          --------------------------
                 RHF SCF CALCULATION
          --------------------------

     NUCLEAR ENERGY =        13.5143203759
     MAXIT =   30     NPUNCH=    2
     EXTRAP=T  DAMP=F  SHIFT=F  RSTRCT=F  DIIS=F  DEM=F  SOSCF=T
     DENSITY MATRIX CONV=  1.00E-05
     SOSCF WILL OPTIMIZE      90 ORBITAL ROTATIONS, SOGTOL=   0.250
     MEMORY REQUIRED FOR RHF ITERS=     34385 WORDS.

 ITER EX DEM     TOTAL ENERGY        E CHANGE  DENSITY CHANGE     ORB. GRAD
   1  0  0      -40.1096684612   -40.1096684612   0.122214576   0.000000000
          ---------------START SECOND ORDER SCF---------------
   2  1  0      -40.1906361003    -0.0809676391   0.042969102   0.019800276
   3  2  0      -40.1945928955    -0.0039567952   0.015986597   0.010945639
   4  3  0      -40.1951568517    -0.0005639562   0.003079217   0.001464855
   5  4  0      -40.1951714835    -0.0000146318   0.000467073   0.000172984
   6  5  0      -40.1951718941    -0.0000004106   0.000140406   0.000044257
   7  6  0      -40.1951719062    -0.0000000121   0.000025207   0.000008607
   8  7  0      -40.1951719065    -0.0000000003   0.000001727   0.000001224
   9  8  0      -40.1951719065    -0.0000000000   0.000000148   0.000000108

          -----------------
          DENSITY CONVERGED
          -----------------
     TIME TO FORM FOCK OPERATORS=       0.0 SECONDS (       0.0 SEC/ITER)
     TIME TO SOLVE SCF EQUATIONS=       0.0 SECONDS (       0.0 SEC/ITER)

 FINAL RHF ENERGY IS      -40.1951719065 AFTER   9 ITERATIONS

          ------------
          EIGENVECTORS
          ------------

                      1          2          3          4          5
                  -11.2050    -0.9446    -0.5462    -0.5462    -0.5461
                     A          A          A          A          A   
    1  C  1  S    0.995620  -0.194148   0.000000   0.000000  -0.000000
    2  C  1  S    0.028508   0.358889  -0.000000  -0.000000   0.000000
    3  C  1  X    0.000000   0.000000   0.436119  -0.003596   0.000723
    4  C  1  Y    0.000000   0.000000   0.003596   0.436120   0.000024
    5  C  1  Z   -0.000000  -0.000000  -0.000723  -0.000018   0.436134
    6  C  1  S   -0.013354   0.362592  -0.000000  -0.000000   0.000000
    7  C  1  X   -0.000000   0.000000   0.228723  -0.001886   0.000379
    8  C  1  Y   -0.000000   0.000000   0.001886   0.228723   0.000013
    9  C  1  Z    0.000000  -0.000000  -0.000379  -0.000009   0.228756
   10  C  1 XX   -0.002076   0.010185  -0.000476  -0.000021   0.031100
   11  C  1 YY   -0.002076   0.010185   0.000192   0.000017  -0.031102
   12  C  1 ZZ   -0.002076   0.010171   0.000283   0.000003   0.000002
   13  C  1 XY    0.000000   0.000000  -0.000029   0.000163   0.002186
   14  C  1 XZ   -0.000000  -0.000000   0.035921   0.001889   0.000387
   15  C  1 YZ   -0.000000  -0.000000   0.001889  -0.035924   0.000008
   16  H  2  S    0.000043   0.134644   0.237408   0.005250   0.170132
   17  H  2  S    0.002479   0.037689   0.195650   0.004327   0.140242
   18  H  3  S    0.000043   0.134644  -0.239500  -0.005314   0.167172
   19  H  3  S    0.002479   0.037689  -0.197375  -0.004380   0.137802
   20  H  4  S    0.000043   0.134644  -0.004236   0.238490  -0.168640
   21  H  4  S    0.002479   0.037689  -0.003491   0.196543  -0.139012
   22  H  5  S    0.000043   0.134644   0.006329  -0.238426  -0.168664
   23  H  5  S    0.002479   0.037689   0.005215  -0.196490  -0.139032

                      6          7          8          9         10
                    0.2571     0.3278     0.3278     0.3278     0.7282
                     A          A          A          A          A   
    1  C  1  S   -0.157029  -0.000000  -0.000000   0.000000  -0.000000
    2  C  1  S    0.104575   0.000000   0.000000  -0.000000  -0.000001
    3  C  1  X    0.000000   0.000015   0.000287   0.297008   0.001290
    4  C  1  Y    0.000000  -0.000008  -0.297008   0.000287   0.000041
    5  C  1  Z   -0.000000   0.296977  -0.000008  -0.000015  -0.729077
    6  C  1  S    2.823904  -0.000000   0.000000   0.000000   0.000002
    7  C  1  X    0.000003   0.000075   0.001456   1.505583  -0.002399
    8  C  1  Y    0.000000  -0.000039  -1.505580   0.001456  -0.000076
    9  C  1  Z   -0.000002   1.505201  -0.000039  -0.000077   1.354439
   10  C  1 XX   -0.012688  -0.013085  -0.000009   0.000179  -0.088427
   11  C  1 YY   -0.012688   0.013086   0.000007  -0.000060   0.088431
   12  C  1 ZZ   -0.012693  -0.000001   0.000002  -0.000119  -0.000004
   13  C  1 XY   -0.000000  -0.000920   0.000068   0.000011  -0.006215
   14  C  1 XZ    0.000000  -0.000138   0.000904  -0.015094  -0.000749
   15  C  1 YZ    0.000000  -0.000003  -0.015095  -0.000904  -0.000013
   16  H  2  S    0.005268  -0.044418   0.001827  -0.062112  -0.312461
   17  H  2  S   -1.050308  -1.175276   0.048416  -1.645562  -0.052714
   18  H  3  S    0.005268  -0.043844  -0.001841   0.062517  -0.310018
   19  H  3  S   -1.050307  -1.160096  -0.048778   1.656292  -0.052305
   20  H  4  S    0.005268   0.044130   0.062323   0.001632   0.311219
   21  H  4  S   -1.050308   1.167654   1.651123   0.043231   0.052507
   22  H  5  S    0.005268   0.044132  -0.062309  -0.002037   0.311258
   23  H  5  S   -1.050308   1.167719  -1.650761  -0.053964   0.052513

                     11         12         13         14         15
                    0.7282     0.7282     1.1843     1.1844     1.1844
                     A          A          A          A          A   
    1  C  1  S    0.000000   0.000000   0.000001   0.000000  -0.000001
    2  C  1  S    0.000000   0.000002   0.000000   0.000000  -0.000001
    3  C  1  X   -0.013909  -0.728947  -0.001727  -0.008145  -0.918438
    4  C  1  Y   -0.728948   0.013909  -0.000045   0.918439  -0.008145
    5  C  1  Z   -0.000066  -0.001290  -0.918431  -0.000030   0.001727
    6  C  1  S   -0.000000  -0.000003  -0.000006  -0.000000   0.000009
    7  C  1  X    0.025853   1.354892   0.002265   0.010683   1.204596
    8  C  1  Y    1.354889  -0.025853   0.000060  -1.204597   0.010682
    9  C  1  Z    0.000122   0.002395   1.204593   0.000040  -0.002265
   10  C  1 XX    0.000080   0.001048   0.190098   0.000124  -0.002950
   11  C  1 YY   -0.000049  -0.000242  -0.190113  -0.000104   0.001218
   12  C  1 ZZ   -0.000031  -0.000805   0.000015  -0.000019   0.001731
   13  C  1 XY   -0.000461   0.000073   0.013361  -0.000994  -0.000178
   14  C  1 XZ   -0.008162  -0.101976   0.002413  -0.011415   0.219633
   15  C  1 YZ    0.101981  -0.008162   0.000054   0.219651   0.011414
   16  H  2  S   -0.021711  -0.438760   0.498226  -0.014943   0.694950
   17  H  2  S   -0.003694  -0.074664  -0.927310   0.027809  -1.293337
   18  H  3  S    0.021824   0.440485   0.489249   0.015119  -0.701304
   19  H  3  S    0.003714   0.074959  -0.910603  -0.028136   1.305146
   20  H  4  S   -0.439681   0.020906  -0.493704  -0.698229  -0.011863
   21  H  4  S   -0.074817   0.003556   0.918905   1.299432   0.022070
   22  H  5  S    0.439568  -0.022629  -0.493759   0.698053   0.018199
   23  H  5  S    0.074797  -0.003852   0.919008  -1.299105  -0.033878

                     16         17         18         19         20
                    1.2517     1.3149     1.9409     1.9409     2.5918
                     A          A          A          A          A   
    1  C  1  S    0.077417  -0.124719   0.000000   0.000052   0.000000
    2  C  1  S   -1.202874  -1.820645   0.000000   0.000418  -0.000001
    3  C  1  X   -0.000005   0.000002  -0.000000  -0.000000   0.180835
    4  C  1  Y   -0.000000   0.000000   0.000000   0.000000  -0.000155
    5  C  1  Z    0.000004  -0.000001  -0.000000  -0.000000   0.000025
    6  C  1  S    2.115859   5.186568  -0.000001  -0.001442   0.000001
    7  C  1  X    0.000005   0.000005  -0.000000  -0.000000   0.413108
    8  C  1  Y    0.000000   0.000000   0.000000  -0.000000  -0.000355
    9  C  1  Z   -0.000004  -0.000004  -0.000000  -0.000000   0.000058
   10  C  1 XX   -0.065239  -0.126307  -0.052698  -0.499942  -0.013205
   11  C  1 YY   -0.065238  -0.126309   0.052527  -0.499996   0.004289
   12  C  1 ZZ   -0.065387  -0.126009   0.000171   0.999984   0.008917
   13  C  1 XY   -0.000000   0.000000   0.998143  -0.000169  -0.000830
   14  C  1 XZ    0.000002  -0.000003  -0.000092  -0.007867   1.130501
   15  C  1 YZ    0.000000  -0.000000   0.004549  -0.000322   0.069784
   16  H  2  S    0.581696  -0.420759   0.000000   0.000258  -0.694607
   17  H  2  S   -0.697997  -0.916420   0.000000   0.000224   0.086224
   18  H  3  S    0.581688  -0.420751   0.000000   0.000257   0.698949
   19  H  3  S   -0.697986  -0.916424   0.000000   0.000224  -0.086763
   20  H  4  S    0.581696  -0.420759  -0.000000   0.000257   0.019615
   21  H  4  S   -0.697997  -0.916420   0.000000   0.000224  -0.002436
   22  H  5  S    0.581696  -0.420759   0.000000   0.000257  -0.023953
   23  H  5  S   -0.697997  -0.916420   0.000000   0.000224   0.002973

                     21         22         23
                    2.5918     2.5919     4.6119
                     A          A          A   
    1  C  1  S   -0.000000   0.000000  -0.485611
    2  C  1  S    0.000000  -0.000001   2.967875
    3  C  1  X   -0.000155   0.000026  -0.000000
    4  C  1  Y   -0.180834  -0.000003  -0.000000
    5  C  1  Z    0.000003  -0.180846   0.000000
    6  C  1  S   -0.000000   0.000001   2.409509
    7  C  1  X   -0.000355   0.000059   0.000002
    8  C  1  Y   -0.413106  -0.000007   0.000000
    9  C  1  Z    0.000007  -0.412752  -0.000002
   10  C  1 XX    0.000751  -0.979135  -1.880877
   11  C  1 YY   -0.000565   0.979191  -1.880877
   12  C  1 ZZ   -0.000186  -0.000056  -1.880884
   13  C  1 XY   -0.005113  -0.068816  -0.000000
   14  C  1 XZ   -0.069784  -0.010140   0.000001
   15  C  1 YZ    1.130570  -0.000177   0.000000
   16  H  2  S    0.021682   0.496030   0.131530
   17  H  2  S   -0.002692  -0.061757  -0.488591
   18  H  3  S   -0.021886   0.489888   0.131531
   19  H  3  S    0.002717  -0.060992  -0.488591
   20  H  4  S    0.696886  -0.492910   0.131530
   21  H  4  S   -0.086509   0.061367  -0.488591
   22  H  5  S   -0.696683  -0.493006   0.131530
   23  H  5  S    0.086484   0.061379  -0.488591
 ...... END OF RHF CALCULATION ......
 STEP CPU TIME =     0.01 TOTAL CPU TIME =          0.0 (      0.0 MIN)
 TOTAL WALL CLOCK TIME=          0.3 SECONDS, CPU UTILIZATION IS    13.54%

     ----------------------------------------------------------------
     PROPERTY VALUES FOR THE RHF   SELF-CONSISTENT FIELD WAVEFUNCTION
     ----------------------------------------------------------------

          -----------------
          ENERGY COMPONENTS
          -----------------

         WAVEFUNCTION NORMALIZATION =       1.0000000000

                ONE ELECTRON ENERGY =     -79.8428163756
                TWO ELECTRON ENERGY =      26.1333240931
           NUCLEAR REPULSION ENERGY =      13.5143203759
                                      ------------------
                       TOTAL ENERGY =     -40.1951719065

 ELECTRON-ELECTRON POTENTIAL ENERGY =      26.1333240931
  NUCLEUS-ELECTRON POTENTIAL ENERGY =    -120.0257327666
   NUCLEUS-NUCLEUS POTENTIAL ENERGY =      13.5143203759
                                      ------------------
             TOTAL POTENTIAL ENERGY =     -80.3780882975
               TOTAL KINETIC ENERGY =      40.1829163910
                 VIRIAL RATIO (V/T) =       2.0003049932

          ---------------------------------------
          MULLIKEN AND LOWDIN POPULATION ANALYSES
          ---------------------------------------

     ATOMIC MULLIKEN POPULATION IN EACH MOLECULAR ORBITAL

                      1          2          3          4          5

                  2.000000   2.000000   2.000000   2.000000   2.000000

    1             1.998006   1.347489   1.104994   1.104994   1.105014
    2             0.000499   0.163128   0.443350   0.000217   0.227682
    3             0.000499   0.163128   0.451200   0.000222   0.219828
    4             0.000499   0.163128   0.000141   0.447403   0.223705
    5             0.000499   0.163128   0.000315   0.447164   0.223771

               ----- POPULATIONS IN EACH AO -----
                             MULLIKEN      LOWDIN
              1  C  1  S      1.99642     1.98240
              2  C  1  S      0.62670     0.35232
              3  C  1  X      0.69542     0.62965
              4  C  1  Y      0.69542     0.62964
              5  C  1  Z      0.69540     0.62905
              6  C  1  S      0.68270     0.35296
              7  C  1  X      0.39557     0.51790
              8  C  1  Y      0.39557     0.51791
              9  C  1  Z      0.39561     0.51675
             10  C  1 XX      0.02021     0.15637
             11  C  1 YY      0.02021     0.15637
             12  C  1 ZZ      0.01321     0.14762
             13  C  1 XY      0.00005     0.00008
             14  C  1 XZ      0.01400     0.02052
             15  C  1 YZ      0.01400     0.02052
             16  H  2  S      0.52356     0.48462
             17  H  2  S      0.31132     0.35785
             18  H  3  S      0.52356     0.48465
             19  H  3  S      0.31132     0.35785
             20  H  4  S      0.52356     0.48464
             21  H  4  S      0.31132     0.35785
             22  H  5  S      0.52356     0.48464
             23  H  5  S      0.31132     0.35785

          ----- MULLIKEN ATOMIC OVERLAP POPULATIONS -----
          (OFF-DIAGONAL ELEMENTS NEED TO BE MULTIPLIED BY 2)

             1           2           3           4           5

    1    5.1051743
    2    0.3888305   0.5242688
    3    0.3888306  -0.0260553   0.5242677
    4    0.3888305  -0.0260840  -0.0260837   0.5242687
    5    0.3888305  -0.0260840  -0.0260837  -0.0260556   0.5242688

          TOTAL MULLIKEN AND LOWDIN ATOMIC POPULATIONS
       ATOM         MULL.POP.    CHARGE          LOW.POP.     CHARGE
    1 C             6.660496   -0.660496         6.630043   -0.630043
    2 H             0.834876    0.165124         0.842474    0.157526
    3 H             0.834876    0.165124         0.842505    0.157495
    4 H             0.834876    0.165124         0.842490    0.157510
    5 H             0.834876    0.165124         0.842488    0.157512

          -------------------------------
          BOND ORDER AND VALENCE ANALYSIS     BOND ORDER THRESHOLD=0.050
          -------------------------------

                   BOND                       BOND                       BOND
  ATOM PAIR DIST  ORDER      ATOM PAIR DIST  ORDER      ATOM PAIR DIST  ORDER
    1   2  1.084  0.962        1   3  1.084  0.962        1   4  1.084  0.962
    1   5  1.084  0.962

                       TOTAL       BONDED        FREE
      ATOM            VALENCE     VALENCE     VALENCE
    1 C                 3.848       3.848       0.000
    2 H                 0.934       0.934       0.000
    3 H                 0.934       0.934       0.000
    4 H                 0.934       0.934       0.000
    5 H                 0.934       0.934       0.000

          ---------------------
          ELECTROSTATIC MOMENTS
          ---------------------

 POINT   1           X           Y           Z (BOHR)    CHARGE
                 0.000000   -0.000000   -0.000000        0.00 (A.U.)
         DX          DY          DZ         /D/  (DEBYE)
     0.000001    0.000000   -0.000001    0.000002
 ...... END OF PROPERTY EVALUATION ......
 STEP CPU TIME =     0.00 TOTAL CPU TIME =          0.0 (      0.0 MIN)
 TOTAL WALL CLOCK TIME=          0.4 SECONDS, CPU UTILIZATION IS    11.42%

     ---------------------------------------------
     1ST AND 2ND INTEGRAL DERIVATIVE CONTRIBUTIONS
     ---------------------------------------------
 ...... END OF 1-ELECTRON GRAD+HESS+FOCKDER ......
 STEP CPU TIME =     0.01 TOTAL CPU TIME =          0.1 (      0.0 MIN)
 TOTAL WALL CLOCK TIME=          0.4 SECONDS, CPU UTILIZATION IS    12.79%

     ----------------------------------------------
     TWO ELECTRON INTEGRAL DERIVATIVE CONTRIBUTIONS
     ----------------------------------------------

      14004 WORDS REQUIRED, 127999999 WORDS AVAILABLE
 THE COARSE/FINE SCHWARZ SCREENINGS SKIPPED          0/         0 BLOCKS.
 THE NUMBER OF DERIVATIVE INTEGRAL BLOCKS COMPUTED WAS      3002
 STEP CPU TIME =     0.27 TOTAL CPU TIME =          0.3 (      0.0 MIN)
 TOTAL WALL CLOCK TIME=          2.7 SECONDS, CPU UTILIZATION IS    11.86%
 ...... END OF 2-ELECTRON GRAD+HESS+FOCKDER ......
 STEP CPU TIME =     0.00 TOTAL CPU TIME =          0.3 (      0.0 MIN)
 TOTAL WALL CLOCK TIME=          2.7 SECONDS, CPU UTILIZATION IS    11.87%

     -------------------------------------------
     COUPLED-PERTURBED CLOSED SHELL HARTREE-FOCK
     -------------------------------------------
 THE CPHF HAS      90 INDEPENDENT ORBITAL ROTATIONS.
 SOLVING FOR   15 NUCLEAR RESPONSES AND 0 ELECTRIC FIELD RESPONSES
           -FA- WILL USE      3129 WORDS,
           -TA- WILL USE      9797 WORDS,
          -FCK- WILL USE     42220 WORDS,
 -WXY- AND -YA- WILL USE     47052 WORDS,
               THERE ARE 127999999 WORDS OF REPLICATED MEMORY AVAILABLE.
        TIME FOR -FA-   =        0.000
        TIME FOR -TA-   =        0.001
        TIME FOR -FCK-  =        0.003
 PRECONDITIONED CONJUGATE GRADIENT SOLVER     CONV. TOLERANCE=5.00E-05
 ITER    RESPONSE ERROR        IMPROVED
   1       3.00951E-01            15
   2       1.13981E-01            15
   3       1.29086E-02            15
   4       1.70047E-03            15
   5       2.16891E-04            15
   6       2.48296E-05            15
 THE CPHF HAS CONVERGED AFTER  6 ITERATIONS.
 IT REQUIRED    90 FOCK-LIKE BUILDS TO FIND THE  15 SYMMETRY UNIQUE RESPONSES.
        TIME FOR -YA-   =        0.018
 ...... DONE WITH CPHF CONTRIBUTIONS ......
 STEP CPU TIME =     0.02 TOTAL CPU TIME =          0.3 (      0.0 MIN)
 TOTAL WALL CLOCK TIME=          2.9 SECONDS, CPU UTILIZATION IS    11.83%

          ---------------
          ENERGY GRADIENT
          ---------------

 UNITS ARE HARTREE/BOHR    E'X               E'Y               E'Z 
    1 C               -0.000000949      -0.000000022       0.000000664
    2 H                0.000000360       0.000000001      -0.000031117
    3 H                0.000000263       0.000000014      -0.000030931
    4 H                0.000000156      -0.000000079       0.000030691
    5 H                0.000000169       0.000000086       0.000030693

          -------------------------------
          CARTESIAN FORCE CONSTANT MATRIX
          -------------------------------

                                   1                          2
                               C                          H         
                          X        Y        Z        X        Y        Z
  1   C            X 0.622378 0.000000-0.000001-0.252183-0.005911-0.138978
                   Y 0.000000 0.622376-0.000000-0.005911-0.057743-0.004221
                   Z-0.000001-0.000000 0.622237-0.138981-0.004221-0.156821
  2   H            X-0.252183-0.005911-0.138981 0.270178 0.006563 0.154338
                   Y-0.005911-0.057743-0.004221 0.006563 0.054281 0.004687
                   Z-0.138978-0.004221-0.156821 0.154338 0.004687 0.164299
  3   H            X-0.254701-0.006000 0.138091-0.022819-0.000658 0.018583
                   Y-0.006000-0.057747 0.004203-0.000656-0.001222 0.000564
                   Z 0.138087 0.004203-0.154301-0.018942-0.000577 0.016714
  4   H            X-0.057709 0.005326-0.003766 0.001541 0.027540-0.016918
                   Y 0.005326-0.253494 0.138549 0.001078 0.003212-0.002237
                   Z-0.003766 0.138546-0.155544 0.001271 0.017218-0.012095
  5   H            X-0.057786 0.006585 0.004658 0.003282-0.027534-0.017025
                   Y 0.006585-0.253391-0.138531-0.001074 0.001472 0.001207
                   Z 0.004658-0.138528-0.155570 0.002314-0.017107-0.012097

                                   3                          4
                               H                          H         
                          X        Y        Z        X        Y        Z
  3   H            X 0.272974 0.006663-0.153349 0.003147-0.001062-0.002176
                   Y 0.006663 0.054284-0.004668-0.027695 0.001466 0.016861
                   Z-0.153349-0.004668 0.161500 0.017153-0.001211-0.011956
  4   H            X 0.003147-0.027695 0.017153 0.054242-0.005914 0.004183
                   Y-0.001062 0.001466-0.001211-0.005914 0.271635-0.153858
                   Z-0.002176 0.016861-0.011956 0.004183-0.153858 0.162881
  5   H            X 0.001397 0.027689 0.017051-0.001221 0.000572 0.000489
                   Y 0.001058 0.003218 0.002253 0.000743-0.022820-0.018767
                   Z-0.001148-0.016961-0.011958-0.000652 0.018758 0.016715

                                   5
                               H         
                          X        Y        Z
  5   H            X 0.054327-0.007311-0.005173
                   Y-0.007311 0.271521 0.153838
                   Z-0.005173 0.153838 0.162910

          ------------------------          ----------------
          DIPOLE DERIVATIVE TENSOR          (DEBYE/ANGSTROM)
          ------------------------          ----------------

        ATOM                 MU-X           MU-Y           MU-Z
     C          D/DX     0.350151400    0.000000048   -0.000001256
                D/DY     0.000000059    0.350150183   -0.000000110
                D/DZ    -0.000001200   -0.000000034    0.350235738
     H          D/DX    -0.461764947   -0.022900839   -0.538570216
                D/DY    -0.022902184    0.291584775   -0.016357632
                D/DZ    -0.538472526   -0.016353689   -0.092453697
     H          D/DX    -0.471510715   -0.023247822    0.535112092
                D/DY    -0.023249260    0.291570959    0.016288479
                D/DZ     0.535017490    0.016284604   -0.082682250
     H          D/DX     0.291715981    0.020639072   -0.014594302
                D/DY     0.020639291   -0.466846444    0.536894943
                D/DZ    -0.014591908    0.536801495   -0.087503265
     H          D/DX     0.291419365    0.025512376    0.018053772
                D/DY     0.025509259   -0.466448384   -0.536825689
                D/DZ     0.018048430   -0.536732365   -0.087604810

          --------------------------------------------------------
          NORMAL COORDINATE ANALYSIS IN THE HARMONIC APPROXIMATION
          --------------------------------------------------------

          ATOMIC WEIGHTS (AMU)

    1     C                12.00000
    2     H                 1.00782
    3     H                 1.00782
    4     H                 1.00782
    5     H                 1.00782

 MODES    1 TO    6 ARE TAKEN AS ROTATIONS AND TRANSLATIONS.

 ANALYZING SYMMETRY OF NORMAL MODES...

     FREQUENCIES IN CM**-1, IR INTENSITIES IN DEBYE**2/AMU-ANGSTROM**2,
     REDUCED MASSES IN AMU.

                            1           2           3           4           5
       FREQUENCY:        18.19       18.16        1.59        0.00        0.11  
        SYMMETRY:         A           A           A           A           A   
    REDUCED MASS:      1.00785     1.00785     1.00783     3.20626     3.20597
    IR INTENSITY:      0.00000     0.00000     0.00000     0.00000     0.00000

  1   C            X  0.00005255 -0.00154997  0.00019743  0.00179740 -0.03582128
                   Y -0.00154526 -0.00005273  0.00042201 -0.00003660  0.24716830
                   Z -0.00000061  0.00001131  0.00000016  0.24974935  0.00029402
  2   H            X -0.01216935  0.35261915  0.01530600  0.00179753 -0.03616241
                   Y -0.35458627 -0.01215227 -0.49665974 -0.00003357  0.24576636
                   Z  0.03212708 -0.49540744 -0.00001656  0.24974939  0.00083130
  3   H            X -0.01194032  0.34809970 -0.01496584  0.00179726 -0.03611072
                   Y -0.35247229 -0.01218194  0.49898694 -0.00003962  0.24422751
                   Z -0.03236885  0.49862322  0.00001694  0.24974937 -0.00024693
  4   H            X  0.01095975 -0.35360008  0.49804735  0.00179440 -0.03628931
                   Y  0.35030766  0.01205182  0.01481603 -0.00003692  0.24931546
                   Z  0.49713796  0.03066223  0.00121601  0.24974937  0.00334796
  5   H            X  0.01337334 -0.35346166 -0.49759776  0.00180042 -0.03472251
                   Y  0.35042808  0.01205824 -0.01545575 -0.00003627  0.24936339
                   Z -0.49689856 -0.03383423 -0.00121581  0.24974940 -0.00275626

 TRANS. SAYVETZ    X  0.00085583 -0.02499211  0.00316512  0.02881467 -0.57426148
                   Y -0.02491536 -0.00085864  0.00676485 -0.00058670  3.96242868
                   Z -0.00000976  0.00017984  0.00000248  4.00380686  0.00471345
               TOTAL  0.02493006  0.02500750  0.00746868  4.00391059  4.00382811

   ROT. SAYVETZ    X  3.35486010  0.11544414  0.00818465 -0.00000009  0.02067229
                   Y -0.11544542  3.35487209  0.00036177 -0.00000008 -0.00300676
                   Z  0.00813346  0.00062532 -3.35730231  0.00002035  0.00528309
               TOTAL  3.35685568  3.35685783  3.35731231  0.00002035  0.02154751

                            6           7           8           9          10
       FREQUENCY:         0.11     1487.83     1487.93     1487.93     1702.53  
        SYMMETRY:         A           A           A           A           A   
    REDUCED MASS:      3.20598     1.17816     1.17813     1.17813     1.00783
    IR INTENSITY:      0.00000     0.24325     0.24334     0.24334     0.00000

  1   C            X  0.24716214  0.00112085  0.00239002 -0.11464725  0.00000024
                   Y  0.03582210  0.00004328 -0.11465284 -0.00238971  0.00000000
                   Z -0.00177353  0.11468032  0.00001991  0.00112151  0.00000034
  2   H            X  0.24933735  0.30345959 -0.01560356  0.13228329 -0.28924628
                   Y  0.03601590  0.00917142  0.55603211 -0.00128047 -0.00889901
                   Z -0.00482729 -0.33562176 -0.00296106 -0.30820749  0.40535892
  3   H            X  0.24934046 -0.30397574 -0.01579065  0.12082048  0.28555064
                   Y  0.03499695 -0.00929670  0.55603004 -0.00165781  0.00874822
                   Z  0.00129989 -0.34709358  0.00284416  0.29957771  0.40797125
  4   H            X  0.24447378  0.00282035  0.00008758  0.55613630  0.01049927
                   Y  0.03612212 -0.30393427  0.12640807  0.01134347 -0.28733393
                   Z -0.00124594 -0.34143540  0.30388324 -0.00526595 -0.40668107
  5   H            X  0.24549648 -0.01564997  0.00284913  0.55584512 -0.00680650
                   Y  0.03615326  0.30354422  0.12668151  0.02004862  0.28748467
                   Z -0.00232080 -0.34132921 -0.30400342  0.00054213 -0.40665314

 TRANS. SAYVETZ    X  3.96232988 -0.00000000  0.00000004  0.00000002 -0.00000000
                   Y  0.57427463  0.00000000  0.00000002 -0.00000004  0.00000000
                   Z -0.02843204 -0.00000096 -0.00000000 -0.00000001 -0.00000000
               TOTAL  4.00383040  0.00000096  0.00000004  0.00000004  0.00000000

   ROT. SAYVETZ    X  0.00299304 -0.00000001  0.00032873 -0.00001235 -0.00000007
                   Y  0.02074949 -0.00000005  0.00001260  0.00032246  0.00000144
                   Z  0.00344954  0.00000012  0.00000596 -0.00000001  0.00000030
               TOTAL  0.02124615  0.00000013  0.00032902  0.00032269  0.00000147

                           11          12          13          14          15
       FREQUENCY:      1702.64     3197.43     3301.90     3302.01     3302.01  
        SYMMETRY:         A           A           A           A           A   
    REDUCED MASS:      1.00783     1.00783     1.10237     1.10240     1.10240
    IR INTENSITY:      0.00000     0.00000     0.94240     0.94214     0.94213

  1   C            X  0.00000002  0.00000127 -0.00160828  0.00216865 -0.08830132
                   Y -0.00000041  0.00000004 -0.00005203 -0.08831582 -0.00216806
                   Z -0.00000001 -0.00000089 -0.08831727  0.00001253  0.00160898
  2   H            X -0.01518574 -0.40517569  0.40539507  0.00355790  0.53083314
                   Y  0.49782588 -0.01230540  0.01231143 -0.01594747  0.01621493
                   Z  0.00009318 -0.28938625  0.27369828  0.00226180  0.39084218
  3   H            X  0.01518495  0.40777426 -0.38312238  0.00374906  0.55237970
                   Y -0.49782092  0.01241161 -0.01166178 -0.01594119  0.01690734
                   Z  0.00004653 -0.28567890  0.25215242 -0.00234802 -0.39789222
  4   H            X  0.49782195  0.01105208  0.01042681 -0.01477350 -0.01619587
                   Y  0.01508639 -0.40653908 -0.39431119  0.54188266  0.00531695
                   Z  0.00219623  0.28751865  0.26281194 -0.39454292 -0.00374683
  5   H            X -0.49782136 -0.01366578 -0.01355004 -0.01835505 -0.01562938
                   Y -0.01508642  0.40643241  0.39428103  0.54156623 -0.01262463
                   Z -0.00233585  0.28755707  0.26291444  0.39447989 -0.00836097

 TRANS. SAYVETZ    X -0.00000000  0.00000003 -0.00000002  0.00000012 -0.00000114
                   Y  0.00000000  0.00000000 -0.00000000 -0.00000114 -0.00000012
                   Z -0.00000000 -0.00000002 -0.00000161  0.00000000  0.00000004
               TOTAL  0.00000000  0.00000003  0.00000161  0.00000114  0.00000114

   ROT. SAYVETZ    X  0.00000087  0.00000000  0.00000008 -0.00008055  0.00000314
                   Y  0.00000002  0.00000001 -0.00000289 -0.00000314 -0.00008188
                   Z  0.00000118  0.00000005  0.00000003  0.00000063  0.00000000
               TOTAL  0.00000147  0.00000005  0.00000289  0.00008061  0.00008194

 REFERENCE ON SAYVETZ CONDITIONS - A. SAYVETZ, J.CHEM.PHYS., 7, 383-389(1939).

 NOTE - THE MODES J,K ARE ORTHONORMALIZED ACCORDING TO
 SUM ON I   M(I) * (X(I,J)*X(I,K) + Y(I,J)*Y(I,K) + Z(I,J)*Z(I,K)) = DELTA(J,K)

  MODE FREQ(CM**-1)  SYMMETRY  RED. MASS  IR INTENS.
     1      18.185    A        1.007851    0.000000
     2      18.157    A        1.007852    0.000000
     3       1.586    A        1.007827    0.000000
     4       0.001    A        3.206260    0.000000
     5       0.113    A        3.205974    0.000000
     6       0.113    A        3.205982    0.000000
     7    1487.830    A        1.178162    0.243250
     8    1487.929    A        1.178134    0.243343
     9    1487.931    A        1.178133    0.243338
    10    1702.527    A        1.007825    0.000000
    11    1702.636    A        1.007825    0.000000
    12    3197.431    A        1.007825    0.000000
    13    3301.901    A        1.102372    0.942403
    14    3302.007    A        1.102396    0.942145
    15    3302.011    A        1.102397    0.942132

     -------------------------------
     THERMOCHEMISTRY AT T=  298.15 K
     -------------------------------

 USING IDEAL GAS, RIGID ROTOR, HARMONIC NORMAL MODE APPROXIMATIONS.
 P=  1.01325E+05 PASCAL.
 V=  4.06261E-26 M**3.
 ALL FREQUENCIES ARE SCALED BY   1.00000
 THE MOMENTS OF INERTIA ARE (IN AMU*BOHR**2)
             11.26892            11.26893            11.27159
 THE ROTATIONAL SYMMETRY NUMBER IS  1.0
 THE ROTATIONAL CONSTANTS ARE (IN GHZ)
    160.00546   160.00522   159.96758
      7 -     15 VIBRATIONAL MODES ARE USED IN THERMOCHEMISTRY.
 THE HARMONIC ZERO POINT ENERGY IS (SCALED BY   1.000)
        0.047778 HARTREE/MOLECULE    10486.101651 CM**-1/MOLECULE 
       29.981299 KCAL/MOL              125.441756 KJ/MOL

               Q               LN Q
 ELEC.     1.00000E+00       0.000000
 TRANS.    2.52294E+06      14.740935
 ROT.      4.28269E+02       6.059751
 VIB.      1.00283E+00       0.002827
 TOT.      1.08355E+09      20.803513

              E         H         G         CV        CP        S
           KJ/MOL    KJ/MOL    KJ/MOL   J/MOL-K   J/MOL-K   J/MOL-K
 ELEC.      0.000     0.000     0.000     0.000     0.000     0.000
 TRANS.     3.718     6.197   -36.542    12.472    20.786   143.348
 ROT.       3.718     3.718   -15.022    12.472    12.472    62.855
 VIB.     125.493   125.493   125.435     1.285     1.285     0.197
 TOTAL    132.930   135.409    73.871    26.229    34.543   206.400
 VIB. THERMAL CORRECTION E(T)-E(0) = H(T)-H(0) =        51.729 J/MOL

              E         H         G         CV        CP        S
         KCAL/MOL  KCAL/MOL  KCAL/MOL CAL/MOL-K CAL/MOL-K CAL/MOL-K
 ELEC.      0.000     0.000     0.000     0.000     0.000     0.000
 TRANS.     0.889     1.481    -8.734     2.981     4.968    34.261
 ROT.       0.889     0.889    -3.590     2.981     2.981    15.023
 VIB.      29.994    29.994    29.980     0.307     0.307     0.047
 TOTAL     31.771    32.364    17.656     6.269     8.256    49.331
 VIB. THERMAL CORRECTION E(T)-E(0) = H(T)-H(0) =        12.364 CAL/MOL
 ......END OF NORMAL COORDINATE ANALYSIS......
 STEP CPU TIME =     0.00 TOTAL CPU TIME =          0.3 (      0.0 MIN)
 TOTAL WALL CLOCK TIME=          2.9 SECONDS, CPU UTILIZATION IS    11.89%
               580000  WORDS OF DYNAMIC MEMORY USED
 EXECUTION OF GAMESS TERMINATED NORMALLY 18:00:20 09-JAN-2024    
 DDI: 263640 bytes (0.3 MB / 0 MWords) used by master data server.

 ----------------------------------------
 CPU timing information for all processes
 ========================================
 0: 0.326 + 0.24 = 0.351
 ----------------------------------------
 ddikick.x: exited gracefully.
